 Gaussian 16, Revision C.01,
 Gaussian 16:  ES64L-G16RevC.01  3-Jul-2019

 ----------------------------------------------------------------------
 #P B3LYP/6-311G Cube=(80,Density,Full,Gradient) # Gfinput IOP(6/7=3) P
 op=NPA Test Density=current # Units(Ang,Deg)
 ----------------------------------------------------------------------

 ----------------------------------
 Input file generated by gabedit...
 ----------------------------------
 Symbolic Z-matrix:
 Charge = -1 Multiplicity = 2

                         Standard orientation:
 ---------------------------------------------------------------------
 Center     Atomic      Atomic             Coordinates (Angstroms)
 Number     Number       Type             X           Y           Z
 ---------------------------------------------------------------------
      1          8           0       -0.000000    0.000000    0.116400
      2          1           0        0.000000    0.751000   -0.465600
      3          1           0       -0.000000   -0.751000   -0.465600
 ---------------------------------------------------------------------

 SCF Done:  E(UB3LYP) =  -76.3055097467     A.U. after   12 cycles

 The electronic state is 2-A1.
 Alpha  occ. eigenvalues --  -18.79615  -0.72455  -0.23924  -0.08438  -0.00940
 Alpha  occ. eigenvalues --    0.19928
 Alpha virt. eigenvalues --    0.30964   0.64343   0.68191   1.03122   1.04142
 Alpha virt. eigenvalues --    1.15520   1.44155   2.42524   2.46001   5.04374
 Alpha virt. eigenvalues --    5.15445   5.27786  50.04075
  Beta  occ. eigenvalues --  -18.79060  -0.70892  -0.23165  -0.07570  -0.00300
  Beta virt. eigenvalues --    0.27848   0.34244   0.65559   0.70401   1.04204
  Beta virt. eigenvalues --    1.05366   1.16556   1.45628   2.43452   2.46994
  Beta virt. eigenvalues --    5.04865   5.16635   5.28098  50.04705

 Mulliken charges and spin densities:
               1          2
     1  O   -0.662070  -0.100410
     2  H   -0.168965   0.550205
     3  H   -0.168965   0.550205
 Sum of Mulliken charges =  -1.00000   1.00000

 Dipole moment (field-independent basis, Debye):
    X=              0.0000    Y=             -0.0000    Z=              0.5074  Tot=              0.5074
 Quadrupole moment (field-independent basis, Debye-Ang):
   XX=            -11.8484   YY=            -12.0436   ZZ=            -12.7773
   XY=             -0.0000   XZ=             -0.0000   YZ=              0.0000

 Summary of Natural Population Analysis:

                                       Natural Population
                Natural  -----------------------------------------------
    Atom  No    Charge         Core      Valence    Rydberg      Total
 -----------------------------------------------------------------------
      O    1   -1.06949      1.99984     7.03931    0.03033     9.06949
      H    2    0.03474      0.00000     0.81572    0.14954     0.96526
      H    3    0.03474      0.00000     0.81572    0.14954     0.96526
 =======================================================================
   * Total *   -1.00000      1.99984     8.67075    0.32941    11.00000

 Normal termination of Gaussian 16 at Wed Jun 12 13:44:02 2024.
