 Gaussian 16, Revision C.01,
 Gaussian 16:  ES64L-G16RevC.01  3-Jul-2019

 ----------------------------------------------------------------------
 #P B3LYP/6-311G Cube=(80,Density,Full,Gradient) # Gfinput IOP(6/7=3) P
 op=NPA Test Density=current # Units(Ang,Deg)
 ----------------------------------------------------------------------

 ----------------------------------
 Input file generated by gabedit...
 ----------------------------------
 Symbolic Z-matrix:
 Charge =  0 Multiplicity = 1

                         Standard orientation:
 ---------------------------------------------------------------------
 Center     Atomic      Atomic             Coordinates (Angstroms)
 Number     Number       Type             X           Y           Z
 ---------------------------------------------------------------------
      1          8           0       -0.000000    0.000000    0.116400
      2          1           0        0.000000    0.751000   -0.465600
      3          1           0       -0.000000   -0.751000   -0.465600
 ---------------------------------------------------------------------

 SCF Done:  E(RB3LYP) =  -76.4143051829     A.U. after   10 cycles

 The electronic state is 1-A1.
 Alpha  occ. eigenvalues --  -19.10728  -1.02856  -0.53910  -0.36454  -0.30075
 Alpha virt. eigenvalues --    0.02092   0.10166   0.37890   0.41569   0.76128
 Alpha virt. eigenvalues --    0.78213   0.89406   1.16332   2.12938   2.16852
 Alpha virt. eigenvalues --    4.74640   4.85925   4.97939  49.73020

 Mulliken charges:
               1
     1  O   -0.741481
     2  H    0.370741
     3  H    0.370741
 Sum of Mulliken charges =  -0.00000

 Dipole moment (field-independent basis, Debye):
    X=             -0.0000    Y=              0.0000    Z=             -2.5146  Tot=              2.5146
 Quadrupole moment (field-independent basis, Debye-Ang):
   XX=             -7.3086   YY=             -4.3321   ZZ=             -6.2433
   XY=              0.0000   XZ=              0.0000   YZ=              0.0000

 Summary of Natural Population Analysis:

                                       Natural Population
                Natural  -----------------------------------------------
    Atom  No    Charge         Core      Valence    Rydberg      Total
 -----------------------------------------------------------------------
      O    1   -0.86200      1.99982     6.85641    0.00577     8.86200
      H    2    0.43100      0.00000     0.56579    0.00321     0.56900
      H    3    0.43100      0.00000     0.56579    0.00321     0.56900
 =======================================================================
   * Total *   -0.00000      1.99982     7.98798    0.01220    10.00000

 1\1\GINC-ILMFIXE1061\SP\RB3LYP\6-311G\H2O1\TMAAMAATUAI\12-Jun-2024\0\\
 #P B3LYP/6-311G Cube=(80,Density,Full,Gradient) # Gfinput IOP(6/7=3) P
 op=NPA Test Density=current # Units(Ang,Deg)\\Input file generated by
 gabedit...\\0,1\O,0,0.,-0.388,0.\H,0,0.751,0.194,0.\H,0,-0.751,0.194,0
 .\\Version=ES64L-G16RevC.01\State=1-A1\HF=-76.4143052\RMSD=4.053e-10\D
 ipole=0.,0.9893361,0.\Quadrupole=1.2113292,-0.2096504,-1.0016788,0.,0.
 ,0.\PG=C02V [C2(O1),SGV(H2)]\\@

 Normal termination of Gaussian 16 at Wed Jun 12 13:44:13 2024.
