 Gaussian 16, Revision C.01,
 Gaussian 16:  ES64L-G16RevC.01  3-Jul-2019

 ----------------------------------------------------------------------
 #P B3LYP/6-311G Cube=(80,Density,Full,Gradient) # Gfinput IOP(6/7=3) P
 op=NPA Test Density=current # Units(Ang,Deg)
 ----------------------------------------------------------------------

 ----------------------------------
 Input file generated by gabedit...
 ----------------------------------
 Symbolic Z-matrix:
 Charge =  1 Multiplicity = 2

                         Standard orientation:
 ---------------------------------------------------------------------
 Center     Atomic      Atomic             Coordinates (Angstroms)
 Number     Number       Type             X           Y           Z
 ---------------------------------------------------------------------
      1          8           0       -0.000000    0.000000    0.116400
      2          1           0        0.000000    0.751000   -0.465600
      3          1           0       -0.000000   -0.751000   -0.465600
 ---------------------------------------------------------------------

 SCF Done:  E(UB3LYP) =  -75.9515139987     A.U. after   10 cycles

 The electronic state is 2-B1.
 Alpha  occ. eigenvalues --  -19.69387  -1.56737  -1.02684  -0.88642  -0.86568
 Alpha virt. eigenvalues --   -0.29940  -0.21336   0.04137   0.06328   0.30120
 Alpha virt. eigenvalues --    0.37154   0.49502   0.71706   1.73698   1.78396
 Alpha virt. eigenvalues --    4.15095   4.33342   4.45348  49.14727
  Beta  occ. eigenvalues --  -19.66600  -1.49640  -1.00465  -0.83115
  Beta virt. eigenvalues --   -0.62315  -0.29024  -0.20728   0.04146   0.07180
  Beta virt. eigenvalues --    0.38159   0.38542   0.50779   0.75600   1.73204
  Beta virt. eigenvalues --    1.77858   4.27548   4.35841   4.47953  49.17564

 Mulliken charges and spin densities:
               1          2
     1  O   -0.052215   1.064585
     2  H    0.526108  -0.032293
     3  H    0.526108  -0.032293
 Sum of Mulliken charges =   1.00000   1.00000

 Dipole moment (field-independent basis, Debye):
    X=             -0.0000    Y=             -0.0000    Z=             -2.6614  Tot=              2.6614
 Quadrupole moment (field-independent basis, Debye-Ang):
   XX=             -4.7592   YY=             -2.2804   ZZ=             -4.5140
   XY=              0.0000   XZ=              0.0000   YZ=              0.0000

 Summary of Natural Population Analysis:

                                       Natural Population
                Natural  -----------------------------------------------
    Atom  No    Charge         Core      Valence    Rydberg      Total
 -----------------------------------------------------------------------
      O    1   -0.53223      0.99991     3.53144    0.00089     4.53223
      H    2    0.26611      0.00000     0.23323    0.00065     0.23389
      H    3    0.26611      0.00000     0.23323    0.00065     0.23389
 =======================================================================
   * Total *    0.00000      0.99991     3.99790    0.00219     5.00000

 Normal termination of Gaussian 16 at Wed Jun 12 13:44:23 2024.
